                              Psi4 1.0.0 Driver

  ==> Input File <==

--------------------------------------------------------------------------
#
# 	A DFT calculation
#

memory 8 gb

molecule n8 {
 O          0.00000       -0.07579        10.00000
symmetry c1
}

set basis aug-cc-pvdz
set reference uhf
set print 10
h_energy = energy('scf')
--------------------------------------------------------------------------

    Molecular point group: c1
    Geometry (in Angstrom), charge = 0, multiplicity = 1:

       Center              X                  Y                   Z               Mass
    ------------   -----------------  -----------------  -----------------  -----------------
           O          0.000000000000     0.000000000000     0.000000000000    15.994914619560

  Charge       = 0
  Multiplicity = 1

    Orbital Energies (a.u.)
    -----------------------

    Alpha Occupied:

       1A    -20.720899     2A     -1.267582     3A     -0.586017
       4A     -0.586017

    Alpha Virtual:

       5A     -0.025376     6A      0.186944     7A      0.197349
       8A      0.197349     9A      0.217628    10A      0.943492
      11A      0.950987    12A      0.950987    13A      0.971879
      14A      0.971879    15A      1.309537    16A      1.309537
      17A      1.343881    18A      1.744780    19A      3.456483
      20A      3.470078    21A      3.470078    22A      3.511380
      23A      3.511380

    Beta Occupied:

       1A    -20.720899     2A     -1.267582     3A     -0.586017
       4A     -0.586017

    Beta Virtual:

       5A     -0.025376     6A      0.186944     7A      0.197349
       8A      0.197349     9A      0.217628    10A      0.943492
      11A      0.950987    12A      0.950987    13A      0.971879
      14A      0.971879    15A      1.309537    16A      1.309537
      17A      1.343881    18A      1.744780    19A      3.456483
      20A      3.470078    21A      3.470078    22A      3.511380
      23A      3.511380

    Final Occupation by Irrep:
              A
    DOCC [     4 ]
    SOCC [     0 ]

  Energy converged.

  @DF-UHF Final Energy:   -74.67004928965511

   => Energetics <=

    Nuclear Repulsion Energy =              0.0000000000000000
    One-Electron Energy =                -103.0190755853284656
    Two-Electron Energy =                  28.3490262956733545
    DFT Exchange-Correlation Energy =       0.0000000000000000
    Empirical Dispersion Energy =           0.0000000000000000
    PCM Polarization Energy =               0.0000000000000000
    EFP Energy =                            0.0000000000000000
    Total Energy =                        -74.6700492896551111

  Saving occupied orbitals to File 180.

  UHF NO Occupations:
  HONO-2 :    2  A 2.0000000
  HONO-1 :    3  A 2.0000000
  HONO-0 :    4  A 2.0000000
  LUNO+0 :    5  A 0.0000000
  LUNO+1 :    6  A 0.0000000
  LUNO+2 :    7  A 0.0000000
  LUNO+3 :    8  A 0.0000000

*** tstop() called on MBP-16.local at Thu Aug 30 10:56:07 2018
Module time:
	user time   =       0.21 seconds =       0.00 minutes
	system time =       0.21 seconds =       0.00 minutes
	total time  =          1 seconds =       0.02 minutes
Total time:
	user time   =       0.21 seconds =       0.00 minutes
	system time =       0.21 seconds =       0.00 minutes
	total time  =          1 seconds =       0.02 minutes

Properties will be evaluated at   0.000000,   0.000000,   0.000000 Bohr

Properties computed using the SCF density matrix

  ## SO Dipole x (Symmetry 0) ##
  Irrep: 1 Size: 23 x 23

                 1                   2                   3                   4                   5

    1     0.00000000000000     0.00000000000000     0.00000000000000     0.00000000000000    -0.08194850170804
    2     0.00000000000000     0.00000000000000     0.00000000000000     0.00000000000000    -0.45720951124634
    3     0.00000000000000     0.00000000000000     0.00000000000000     0.00000000000000    -0.48921140916848
    4     0.00000000000000     0.00000000000000     0.00000000000000     0.00000000000000     0.00000000000000
    5    -0.08194850170804    -0.45720951124634    -0.48921140916848     0.00000000000000     0.00000000000000
    6     0.00000000000000     0.00000000000000     0.00000000000000     0.00000000000000     0.00000000000000
    7     0.00000000000000     0.00000000000000     0.00000000000000     0.00000000000000     0.00000000000000
    8    -0.01549909307702    -0.32239400196438    -0.90690836296052     0.00000000000000     0.00000000000000
    9     0.00000000000000     0.00000000000000     0.00000000000000     0.00000000000000     0.00000000000000
   10     0.00000000000000     0.00000000000000     0.00000000000000     0.00000000000000     0.23570651823438
   11     0.00000000000000    -0.00000000000000     0.00000000000000    -0.40825566525710     0.00000000000000
   12     0.00000000000000     0.00000000000000     0.00000000000000     0.00000000000000     0.00000000000000
   13     0.00000000000000     0.00000000000000     0.00000000000000     0.00000000000000    -0.40825566525710
   14     0.00000000000000     0.00000000000000     0.00000000000000     0.00000000000000     0.00000000000000
   15     0.00000000000000     0.00000000000000     0.00000000000000     0.00000000000000    -0.27156653984167
   16     0.00000000000000     0.00000000000000     0.00000000000000     0.00000000000000     0.00000000000000
   17    -0.00334193984721    -0.08853646179675    -0.48298887790034     0.00000000000000     0.00000000000000
   18     0.00000000000000     0.00000000000000     0.00000000000000     0.00000000000000     0.00000000000000
   19     0.00000000000000     0.00000000000000     0.00000000000000     0.00000000000000     0.12679680467649
   20     0.00000000000000    -0.00000000000000     0.00000000000000    -0.21961850793707     0.00000000000000
   21     0.00000000000000     0.00000000000000     0.00000000000000     0.00000000000000     0.00000000000000
   22     0.00000000000000     0.00000000000000     0.00000000000000     0.00000000000000    -0.21961850793707
   23     0.00000000000000     0.00000000000000     0.00000000000000     0.00000000000000     0.00000000000000

                 6                   7                   8                   9                  10

    1     0.00000000000000     0.00000000000000    -0.01549909307702     0.00000000000000     0.00000000000000
    2     0.00000000000000     0.00000000000000    -0.32239400196438     0.00000000000000     0.00000000000000
    3     0.00000000000000     0.00000000000000    -0.90690836296052     0.00000000000000     0.00000000000000
    4     0.00000000000000     0.00000000000000     0.00000000000000     0.00000000000000     0.00000000000000
    5     0.00000000000000     0.00000000000000     0.00000000000000     0.00000000000000     0.23570651823438
    6     0.00000000000000     0.00000000000000     0.00000000000000     0.00000000000000     0.00000000000000
    7     0.00000000000000     0.00000000000000     0.00000000000000     0.00000000000000     0.00000000000000
    8     0.00000000000000     0.00000000000000     0.00000000000000     0.00000000000000     0.23293349387491
    9     0.00000000000000     0.00000000000000     0.00000000000000     0.00000000000000     0.00000000000000
   10     0.00000000000000     0.00000000000000     0.23293349387491     0.00000000000000     0.00000000000000
   11     0.00000000000000    -0.40345264617587     0.00000000000000     0.00000000000000     0.00000000000000
   12     0.00000000000000     0.00000000000000     0.00000000000000     0.00000000000000     0.00000000000000
   13     0.00000000000000     0.00000000000000    -0.40345264617587     0.00000000000000     0.00000000000000
   14    -0.40825566525710     0.00000000000000     0.00000000000000    -0.40345264617587     0.00000000000000
   15     0.00000000000000     0.00000000000000    -1.12474175118161     0.00000000000000     0.00000000000000
   16     0.00000000000000     0.00000000000000     0.00000000000000     0.00000000000000     0.00000000000000
   17     0.00000000000000     0.00000000000000     0.00000000000000     0.00000000000000     0.06992010084580
   18     0.00000000000000     0.00000000000000     0.00000000000000     0.00000000000000     0.00000000000000
   19     0.00000000000000     0.00000000000000     0.54181657744555     0.00000000000000     0.00000000000000
   20     0.00000000000000    -0.93845384051877     0.00000000000000     0.00000000000000     0.00000000000000
   21     0.00000000000000     0.00000000000000     0.00000000000000     0.00000000000000     0.00000000000000
   22     0.00000000000000     0.00000000000000    -0.93845384051877     0.00000000000000     0.00000000000000
   23    -0.21961850793707     0.00000000000000     0.00000000000000    -0.93845384051877     0.00000000000000

                11                  12                  13                  14                  15

    1     0.00000000000000     0.00000000000000     0.00000000000000     0.00000000000000     0.00000000000000
    2    -0.00000000000000     0.00000000000000     0.00000000000000     0.00000000000000     0.00000000000000
    3     0.00000000000000     0.00000000000000     0.00000000000000     0.00000000000000     0.00000000000000
    4    -0.40825566525710     0.00000000000000     0.00000000000000     0.00000000000000     0.00000000000000
    5     0.00000000000000     0.00000000000000    -0.40825566525710     0.00000000000000    -0.27156653984167
    6     0.00000000000000     0.00000000000000     0.00000000000000    -0.40825566525710     0.00000000000000
    7    -0.40345264617587     0.00000000000000     0.00000000000000     0.00000000000000     0.00000000000000
    8     0.00000000000000     0.00000000000000    -0.40345264617587     0.00000000000000    -1.12474175118161
    9     0.00000000000000     0.00000000000000     0.00000000000000    -0.40345264617587     0.00000000000000
   10     0.00000000000000     0.00000000000000     0.00000000000000     0.00000000000000     0.00000000000000
   11     0.00000000000000     0.00000000000000     0.00000000000000     0.00000000000000     0.00000000000000
   12     0.00000000000000     0.00000000000000     0.00000000000000     0.00000000000000     0.00000000000000
   13     0.00000000000000     0.00000000000000     0.00000000000000     0.00000000000000     0.00000000000000
   14     0.00000000000000     0.00000000000000     0.00000000000000     0.00000000000000     0.00000000000000
   15     0.00000000000000     0.00000000000000     0.00000000000000     0.00000000000000     0.00000000000000
   16    -0.12110516713526     0.00000000000000     0.00000000000000     0.00000000000000     0.00000000000000
   17     0.00000000000000     0.00000000000000    -0.12110516713526     0.00000000000000    -1.76832301800005
   18     0.00000000000000     0.00000000000000     0.00000000000000    -0.12110516713526     0.00000000000000
   19     0.00000000000000     0.00000000000000     0.00000000000000     0.00000000000000     0.00000000000000
   20     0.00000000000000     0.00000000000000     0.00000000000000     0.00000000000000     0.00000000000000
   21     0.00000000000000     0.00000000000000     0.00000000000000     0.00000000000000     0.00000000000000
   22     0.00000000000000     0.00000000000000     0.00000000000000     0.00000000000000     0.00000000000000
   23     0.00000000000000     0.00000000000000     0.00000000000000     0.00000000000000     0.00000000000000

                16                  17                  18                  19                  20

    1     0.00000000000000    -0.00334193984721     0.00000000000000     0.00000000000000     0.00000000000000
    2     0.00000000000000    -0.08853646179675     0.00000000000000     0.00000000000000    -0.00000000000000
    3     0.00000000000000    -0.48298887790034     0.00000000000000     0.00000000000000     0.00000000000000
    4     0.00000000000000     0.00000000000000     0.00000000000000     0.00000000000000    -0.21961850793707
    5     0.00000000000000     0.00000000000000     0.00000000000000     0.12679680467649     0.00000000000000
    6     0.00000000000000     0.00000000000000     0.00000000000000     0.00000000000000     0.00000000000000
    7     0.00000000000000     0.00000000000000     0.00000000000000     0.00000000000000    -0.93845384051877
    8     0.00000000000000     0.00000000000000     0.00000000000000     0.54181657744555     0.00000000000000
    9     0.00000000000000     0.00000000000000     0.00000000000000     0.00000000000000     0.00000000000000
   10     0.00000000000000     0.06992010084580     0.00000000000000     0.00000000000000     0.00000000000000
   11    -0.12110516713526     0.00000000000000     0.00000000000000     0.00000000000000     0.00000000000000
   12     0.00000000000000     0.00000000000000     0.00000000000000     0.00000000000000     0.00000000000000
   13     0.00000000000000    -0.12110516713526     0.00000000000000     0.00000000000000     0.00000000000000
   14     0.00000000000000     0.00000000000000    -0.12110516713526     0.00000000000000     0.00000000000000
   15     0.00000000000000    -1.76832301800005     0.00000000000000     0.00000000000000     0.00000000000000
   16     0.00000000000000     0.00000000000000     0.00000000000000     0.00000000000000    -0.70846536308384
   17     0.00000000000000     0.00000000000000     0.00000000000000     0.40903266808798     0.00000000000000
   18     0.00000000000000     0.00000000000000     0.00000000000000     0.00000000000000     0.00000000000000
   19     0.00000000000000     0.40903266808798     0.00000000000000     0.00000000000000     0.00000000000000
   20    -0.70846536308384     0.00000000000000     0.00000000000000     0.00000000000000     0.00000000000000
   21     0.00000000000000     0.00000000000000     0.00000000000000     0.00000000000000     0.00000000000000
   22     0.00000000000000    -0.70846536308384     0.00000000000000     0.00000000000000     0.00000000000000
   23     0.00000000000000     0.00000000000000    -0.70846536308384     0.00000000000000     0.00000000000000

                21                  22                  23

    1     0.00000000000000     0.00000000000000     0.00000000000000
    2     0.00000000000000     0.00000000000000     0.00000000000000
    3     0.00000000000000     0.00000000000000     0.00000000000000
    4     0.00000000000000     0.00000000000000     0.00000000000000
    5     0.00000000000000    -0.21961850793707     0.00000000000000
    6     0.00000000000000     0.00000000000000    -0.21961850793707
    7     0.00000000000000     0.00000000000000     0.00000000000000
    8     0.00000000000000    -0.93845384051877     0.00000000000000
    9     0.00000000000000     0.00000000000000    -0.93845384051877
   10     0.00000000000000     0.00000000000000     0.00000000000000
   11     0.00000000000000     0.00000000000000     0.00000000000000
   12     0.00000000000000     0.00000000000000     0.00000000000000
   13     0.00000000000000     0.00000000000000     0.00000000000000
   14     0.00000000000000     0.00000000000000     0.00000000000000
   15     0.00000000000000     0.00000000000000     0.00000000000000
   16     0.00000000000000     0.00000000000000     0.00000000000000
   17     0.00000000000000    -0.70846536308384     0.00000000000000
   18     0.00000000000000     0.00000000000000    -0.70846536308384
   19     0.00000000000000     0.00000000000000     0.00000000000000
   20     0.00000000000000     0.00000000000000     0.00000000000000
   21     0.00000000000000     0.00000000000000     0.00000000000000
   22     0.00000000000000     0.00000000000000     0.00000000000000
   23     0.00000000000000     0.00000000000000     0.00000000000000

  ## SO Dipole y (Symmetry 0) ##
  Irrep: 1 Size: 23 x 23

                 1                   2                   3                   4                   5

    1     0.00000000000000     0.00000000000000     0.00000000000000     0.00000000000000     0.00000000000000
    2     0.00000000000000     0.00000000000000     0.00000000000000     0.00000000000000     0.00000000000000
    3     0.00000000000000     0.00000000000000     0.00000000000000     0.00000000000000     0.00000000000000
    4     0.00000000000000     0.00000000000000     0.00000000000000     0.00000000000000     0.00000000000000
    5     0.00000000000000     0.00000000000000     0.00000000000000     0.00000000000000     0.00000000000000
    6    -0.08194850170804    -0.45720951124634    -0.48921140916848     0.00000000000000     0.00000000000000
    7     0.00000000000000     0.00000000000000     0.00000000000000     0.00000000000000     0.00000000000000
    8     0.00000000000000     0.00000000000000     0.00000000000000     0.00000000000000     0.00000000000000
    9    -0.01549909307702    -0.32239400196438    -0.90690836296052     0.00000000000000     0.00000000000000
   10     0.00000000000000     0.00000000000000     0.00000000000000     0.00000000000000     0.00000000000000
   11     0.00000000000000     0.00000000000000     0.00000000000000     0.00000000000000     0.00000000000000
   12     0.00000000000000    -0.00000000000000     0.00000000000000    -0.40825566525710     0.00000000000000
   13     0.00000000000000     0.00000000000000     0.00000000000000     0.00000000000000     0.00000000000000
   14     0.00000000000000     0.00000000000000     0.00000000000000     0.00000000000000    -0.40825566525710
   15     0.00000000000000     0.00000000000000     0.00000000000000     0.00000000000000     0.00000000000000
   16     0.00000000000000     0.00000000000000     0.00000000000000     0.00000000000000     0.00000000000000
   17     0.00000000000000     0.00000000000000     0.00000000000000     0.00000000000000     0.00000000000000
   18    -0.00334193984721    -0.08853646179675    -0.48298887790034     0.00000000000000     0.00000000000000
   19     0.00000000000000     0.00000000000000     0.00000000000000     0.00000000000000     0.00000000000000
   20     0.00000000000000     0.00000000000000     0.00000000000000     0.00000000000000     0.00000000000000
   21     0.00000000000000    -0.00000000000000     0.00000000000000    -0.21961850793707     0.00000000000000
   22     0.00000000000000     0.00000000000000     0.00000000000000     0.00000000000000     0.00000000000000
   23     0.00000000000000     0.00000000000000     0.00000000000000     0.00000000000000    -0.21961850793707

                 6                   7                   8                   9                  10

    1    -0.08194850170804     0.00000000000000     0.00000000000000    -0.01549909307702     0.00000000000000
    2    -0.45720951124634     0.00000000000000     0.00000000000000    -0.32239400196438     0.00000000000000
    3    -0.48921140916848     0.00000000000000     0.00000000000000    -0.90690836296052     0.00000000000000
    4     0.00000000000000     0.00000000000000     0.00000000000000     0.00000000000000     0.00000000000000
    5     0.00000000000000     0.00000000000000     0.00000000000000     0.00000000000000     0.00000000000000
    6     0.00000000000000     0.00000000000000     0.00000000000000     0.00000000000000     0.23570651823438
    7     0.00000000000000     0.00000000000000     0.00000000000000     0.00000000000000     0.00000000000000
    8     0.00000000000000     0.00000000000000     0.00000000000000     0.00000000000000     0.00000000000000
    9     0.00000000000000     0.00000000000000     0.00000000000000     0.00000000000000     0.23293349387491
   10     0.23570651823438     0.00000000000000     0.00000000000000     0.23293349387491     0.00000000000000
   11     0.00000000000000     0.00000000000000     0.00000000000000     0.00000000000000     0.00000000000000
   12     0.00000000000000    -0.40345264617587     0.00000000000000     0.00000000000000     0.00000000000000
   13     0.40825566525710     0.00000000000000     0.00000000000000     0.40345264617587     0.00000000000000
   14     0.00000000000000     0.00000000000000    -0.40345264617587     0.00000000000000     0.00000000000000
   15    -0.27156653984167     0.00000000000000     0.00000000000000    -1.12474175118161     0.00000000000000
   16     0.00000000000000     0.00000000000000     0.00000000000000     0.00000000000000     0.00000000000000
   17     0.00000000000000     0.00000000000000     0.00000000000000     0.00000000000000     0.00000000000000
   18     0.00000000000000     0.00000000000000     0.00000000000000     0.00000000000000     0.06992010084580
   19     0.12679680467649     0.00000000000000     0.00000000000000     0.54181657744555     0.00000000000000
   20     0.00000000000000     0.00000000000000     0.00000000000000     0.00000000000000     0.00000000000000
   21     0.00000000000000    -0.93845384051877     0.00000000000000     0.00000000000000     0.00000000000000
   22     0.21961850793707     0.00000000000000     0.00000000000000     0.93845384051877     0.00000000000000
   23     0.00000000000000     0.00000000000000    -0.93845384051877     0.00000000000000     0.00000000000000

                11                  12                  13                  14                  15

    1     0.00000000000000     0.00000000000000     0.00000000000000     0.00000000000000     0.00000000000000
    2     0.00000000000000    -0.00000000000000     0.00000000000000     0.00000000000000     0.00000000000000
    3     0.00000000000000     0.00000000000000     0.00000000000000     0.00000000000000     0.00000000000000
    4     0.00000000000000    -0.40825566525710     0.00000000000000     0.00000000000000     0.00000000000000
    5     0.00000000000000     0.00000000000000     0.00000000000000    -0.40825566525710     0.00000000000000
    6     0.00000000000000     0.00000000000000     0.40825566525710     0.00000000000000    -0.27156653984167
    7     0.00000000000000    -0.40345264617587     0.00000000000000     0.00000000000000     0.00000000000000
    8     0.00000000000000     0.00000000000000     0.00000000000000    -0.40345264617587     0.00000000000000
    9     0.00000000000000     0.00000000000000     0.40345264617587     0.00000000000000    -1.12474175118161
   10     0.00000000000000     0.00000000000000     0.00000000000000     0.00000000000000     0.00000000000000
   11     0.00000000000000     0.00000000000000     0.00000000000000     0.00000000000000     0.00000000000000
   12     0.00000000000000     0.00000000000000    -0.00000000000000     0.00000000000000     0.00000000000000
   13     0.00000000000000    -0.00000000000000     0.00000000000000     0.00000000000000     0.00000000000000
   14     0.00000000000000     0.00000000000000     0.00000000000000     0.00000000000000     0.00000000000000
   15     0.00000000000000     0.00000000000000     0.00000000000000     0.00000000000000     0.00000000000000
   16     0.00000000000000    -0.12110516713526     0.00000000000000     0.00000000000000     0.00000000000000
   17     0.00000000000000     0.00000000000000     0.00000000000000    -0.12110516713526     0.00000000000000
   18     0.00000000000000     0.00000000000000     0.12110516713526     0.00000000000000    -1.76832301800005
   19     0.00000000000000     0.00000000000000     0.00000000000000     0.00000000000000     0.00000000000000
   20     0.00000000000000     0.00000000000000     0.00000000000000     0.00000000000000     0.00000000000000
   21     0.00000000000000     0.00000000000000     0.00000000000000     0.00000000000000     0.00000000000000
   22     0.00000000000000     0.00000000000000     0.00000000000000     0.00000000000000     0.00000000000000
   23     0.00000000000000     0.00000000000000     0.00000000000000     0.00000000000000     0.00000000000000

                16                  17                  18                  19                  20

    1     0.00000000000000     0.00000000000000    -0.00334193984721     0.00000000000000     0.00000000000000
    2     0.00000000000000     0.00000000000000    -0.08853646179675     0.00000000000000     0.00000000000000
    3     0.00000000000000     0.00000000000000    -0.48298887790034     0.00000000000000     0.00000000000000
    4     0.00000000000000     0.00000000000000     0.00000000000000     0.00000000000000     0.00000000000000
    5     0.00000000000000     0.00000000000000     0.00000000000000     0.00000000000000     0.00000000000000
    6     0.00000000000000     0.00000000000000     0.00000000000000     0.12679680467649     0.00000000000000
    7     0.00000000000000     0.00000000000000     0.00000000000000     0.00000000000000     0.00000000000000
    8     0.00000000000000     0.00000000000000     0.00000000000000     0.00000000000000     0.00000000000000
    9     0.00000000000000     0.00000000000000     0.00000000000000     0.54181657744555     0.00000000000000
   10     0.00000000000000     0.00000000000000     0.06992010084580     0.00000000000000     0.00000000000000
   11     0.00000000000000     0.00000000000000     0.00000000000000     0.00000000000000     0.00000000000000
   12    -0.12110516713526     0.00000000000000     0.00000000000000     0.00000000000000     0.00000000000000
   13     0.00000000000000     0.00000000000000     0.12110516713526     0.00000000000000     0.00000000000000
   14     0.00000000000000    -0.12110516713526     0.00000000000000     0.00000000000000     0.00000000000000
   15     0.00000000000000     0.00000000000000    -1.76832301800005     0.00000000000000     0.00000000000000
   16     0.00000000000000     0.00000000000000     0.00000000000000     0.00000000000000     0.00000000000000
   17     0.00000000000000     0.00000000000000     0.00000000000000     0.00000000000000     0.00000000000000
   18     0.00000000000000     0.00000000000000     0.00000000000000     0.40903266808798     0.00000000000000
   19     0.00000000000000     0.00000000000000     0.40903266808798     0.00000000000000     0.00000000000000
   20     0.00000000000000     0.00000000000000     0.00000000000000     0.00000000000000     0.00000000000000
   21    -0.70846536308384     0.00000000000000     0.00000000000000     0.00000000000000     0.00000000000000
   22     0.00000000000000     0.00000000000000     0.70846536308384     0.00000000000000     0.00000000000000
   23     0.00000000000000    -0.70846536308384     0.00000000000000     0.00000000000000     0.00000000000000

                21                  22                  23

    1     0.00000000000000     0.00000000000000     0.00000000000000
    2    -0.00000000000000     0.00000000000000     0.00000000000000
    3     0.00000000000000     0.00000000000000     0.00000000000000
    4    -0.21961850793707     0.00000000000000     0.00000000000000
    5     0.00000000000000     0.00000000000000    -0.21961850793707
    6     0.00000000000000     0.21961850793707     0.00000000000000
    7    -0.93845384051877     0.00000000000000     0.00000000000000
    8     0.00000000000000     0.00000000000000    -0.93845384051877
    9     0.00000000000000     0.93845384051877     0.00000000000000
   10     0.00000000000000     0.00000000000000     0.00000000000000
   11     0.00000000000000     0.00000000000000     0.00000000000000
   12     0.00000000000000     0.00000000000000     0.00000000000000
   13     0.00000000000000     0.00000000000000     0.00000000000000
   14     0.00000000000000     0.00000000000000     0.00000000000000
   15     0.00000000000000     0.00000000000000     0.00000000000000
   16    -0.70846536308384     0.00000000000000     0.00000000000000
   17     0.00000000000000     0.00000000000000    -0.70846536308384
   18     0.00000000000000     0.70846536308384     0.00000000000000
   19     0.00000000000000     0.00000000000000     0.00000000000000
   20     0.00000000000000     0.00000000000000     0.00000000000000
   21     0.00000000000000     0.00000000000000     0.00000000000000
   22     0.00000000000000     0.00000000000000     0.00000000000000
   23     0.00000000000000     0.00000000000000     0.00000000000000

  ## SO Dipole z (Symmetry 0) ##
  Irrep: 1 Size: 23 x 23

                 1                   2                   3                   4                   5

    1    -0.00000000000000     0.00000000000000    -0.00000000000000    -0.08194850170804     0.00000000000000
    2     0.00000000000000    -0.00000000000000    -0.00000000000000    -0.45720951124634     0.00000000000000
    3    -0.00000000000000    -0.00000000000000    -0.00000000000000    -0.48921140916848     0.00000000000000
    4    -0.08194850170804    -0.45720951124634    -0.48921140916848    -0.00000000000000     0.00000000000000
    5     0.00000000000000     0.00000000000000     0.00000000000000     0.00000000000000    -0.00000000000000
    6     0.00000000000000     0.00000000000000     0.00000000000000     0.00000000000000     0.00000000000000
    7    -0.01549909307702    -0.32239400196438    -0.90690836296052    -0.00000000000000     0.00000000000000
    8     0.00000000000000     0.00000000000000     0.00000000000000     0.00000000000000    -0.00000000000000
    9     0.00000000000000     0.00000000000000     0.00000000000000     0.00000000000000     0.00000000000000
   10     0.00000000000000     0.00000000000000     0.00000000000000    -0.47141303646875     0.00000000000000
   11     0.00000000000000     0.00000000000000     0.00000000000000     0.00000000000000    -0.40825566525710
   12     0.00000000000000     0.00000000000000     0.00000000000000     0.00000000000000     0.00000000000000
   13     0.00000000000000     0.00000000000000     0.00000000000000     0.00000000000000     0.00000000000000
   14     0.00000000000000     0.00000000000000     0.00000000000000     0.00000000000000     0.00000000000000
   15    -0.00000000000000    -0.00000000000000    -0.00000000000000    -0.27156653984167     0.00000000000000
   16    -0.00334193984721    -0.08853646179675    -0.48298887790034    -0.00000000000000     0.00000000000000
   17     0.00000000000000     0.00000000000000     0.00000000000000     0.00000000000000    -0.00000000000000
   18     0.00000000000000     0.00000000000000     0.00000000000000     0.00000000000000     0.00000000000000
   19     0.00000000000000     0.00000000000000     0.00000000000000    -0.25359360935298     0.00000000000000
   20     0.00000000000000     0.00000000000000     0.00000000000000     0.00000000000000    -0.21961850793707
   21     0.00000000000000     0.00000000000000     0.00000000000000     0.00000000000000     0.00000000000000
   22     0.00000000000000     0.00000000000000     0.00000000000000     0.00000000000000     0.00000000000000
   23     0.00000000000000     0.00000000000000     0.00000000000000     0.00000000000000     0.00000000000000

                 6                   7                   8                   9                  10

    1     0.00000000000000    -0.01549909307702     0.00000000000000     0.00000000000000     0.00000000000000
    2     0.00000000000000    -0.32239400196438     0.00000000000000     0.00000000000000     0.00000000000000
    3     0.00000000000000    -0.90690836296052     0.00000000000000     0.00000000000000     0.00000000000000
    4     0.00000000000000    -0.00000000000000     0.00000000000000     0.00000000000000    -0.47141303646875
    5     0.00000000000000     0.00000000000000    -0.00000000000000     0.00000000000000     0.00000000000000
    6    -0.00000000000000     0.00000000000000     0.00000000000000    -0.00000000000000     0.00000000000000
    7     0.00000000000000    -0.00000000000000     0.00000000000000     0.00000000000000    -0.46586698774981
    8     0.00000000000000     0.00000000000000    -0.00000000000000     0.00000000000000     0.00000000000000
    9    -0.00000000000000     0.00000000000000     0.00000000000000    -0.00000000000000     0.00000000000000
   10     0.00000000000000    -0.46586698774981     0.00000000000000     0.00000000000000    -0.00000000000000
   11     0.00000000000000     0.00000000000000    -0.40345264617587     0.00000000000000     0.00000000000000
   12    -0.40825566525710     0.00000000000000     0.00000000000000    -0.40345264617587     0.00000000000000
   13     0.00000000000000     0.00000000000000     0.00000000000000     0.00000000000000    -0.00000000000000
   14     0.00000000000000     0.00000000000000     0.00000000000000     0.00000000000000     0.00000000000000
   15     0.00000000000000    -1.12474175118161     0.00000000000000     0.00000000000000     0.00000000000000
   16     0.00000000000000    -0.00000000000000     0.00000000000000     0.00000000000000    -0.13984020169159
   17     0.00000000000000     0.00000000000000    -0.00000000000000     0.00000000000000     0.00000000000000
   18    -0.00000000000000     0.00000000000000     0.00000000000000    -0.00000000000000     0.00000000000000

*** Psi4 exiting successfully. Buy a developer a beer!
